<?xml version="1.0" encoding="UTF-8"?>

<!-- generated on 2025-11-10 22:35:24 by Eclipse SUMO GUI Version 1.24.0
<sumoConfiguration xmlns:xsi="http://www.w3.org/2001/XMLSchema-instance" xsi:noNamespaceSchemaLocation="http://sumo.dlr.de/xsd/sumoConfiguration.xsd">

    <input>
        <net-file value="C:\Users\24478\Desktop\G15-ERS\highway.net.xml"/>
        <route-files value="C:\Users\24478\Desktop\G15-ERS\ERS.rou.xml"/>
        <additional-files value="C:\Users\24478\Desktop\G15-ERS\ERS.add.xml"/>
    </input>

    <output>
        <battery-output value="C:\Users\24478\Desktop\G15-ERS\battery_output.xml"/>
        <fcd-output value="C:\Users\24478\Desktop\G15-ERS\fcd_output.xml"/>
        <tripinfo-output value="C:\Users\24478\Desktop\G15-ERS\sample.tripinfo.xml"/>
    </output>

    <time>
        <begin value="0"/>
        <step-length value="0.1"/>
    </time>

</sumoConfiguration>
-->

<tripinfos xmlns:xsi="http://www.w3.org/2001/XMLSchema-instance" xsi:noNamespaceSchemaLocation="http://sumo.dlr.de/xsd/tripinfo_file.xsd">
    <tripinfo id="fleet1_leader" depart="0.00" departLane="1389427542_0" departPos="12.10" departSpeed="28.61" departDelay="0.00" arrival="961.10" arrivalLane="24963101_0" arrivalPos="986.28" arrivalSpeed="32.92" duration="961.10" routeLength="27557.65" waitingTime="0.00" waitingCount="0" stopTime="0.00" timeLoss="2.81" rerouteNo="0" devices="tripinfo_fleet1_leader battery_fleet1_leader fcd_fleet1_leader" vType="eTruck" speedFactor="1.03" vaporized="">
        <battery depleted="0" actualBatteryCapacity="393811.48" totalEnergyConsumed="13503.83" totalEnergyRegenerated="36.15"/>
    </tripinfo>
    <tripinfo id="fleet2_leader" depart="30.00" departLane="1389427542_0" departPos="12.10" departSpeed="28.93" departDelay="0.00" arrival="982.80" arrivalLane="24963101_0" arrivalPos="986.28" arrivalSpeed="32.93" duration="952.80" routeLength="27557.65" waitingTime="0.00" waitingCount="0" stopTime="0.00" timeLoss="4.58" rerouteNo="0" devices="tripinfo_fleet2_leader battery_fleet2_leader fcd_fleet2_leader" vType="eTruck" speedFactor="1.04" vaporized="">
        <battery depleted="0" actualBatteryCapacity="393747.20" totalEnergyConsumed="13616.71" totalEnergyRegenerated="109.75"/>
    </tripinfo>
    <tripinfo id="fleet1_f3" depart="2.00" departLane="1389427542_0" departPos="12.10" departSpeed="27.92" departDelay="0.00" arrival="986.80" arrivalLane="24963101_0" arrivalPos="986.28" arrivalSpeed="32.95" duration="984.80" routeLength="27557.65" waitingTime="0.00" waitingCount="0" stopTime="0.00" timeLoss="3.59" rerouteNo="0" devices="tripinfo_fleet1_f3 battery_fleet1_f3 fcd_fleet1_f3" vType="eTruck" speedFactor="1.01" vaporized="">
        <battery depleted="0" actualBatteryCapacity="392300.44" totalEnergyConsumed="13485.25" totalEnergyRegenerated="114.85"/>
    </tripinfo>
    <tripinfo id="fleet2_f2" depart="31.00" departLane="1389427542_0" departPos="12.10" departSpeed="28.20" departDelay="0.00" arrival="1006.30" arrivalLane="24963101_0" arrivalPos="986.28" arrivalSpeed="33.20" duration="975.30" routeLength="27557.65" waitingTime="0.00" waitingCount="0" stopTime="0.00" timeLoss="3.54" rerouteNo="0" devices="tripinfo_fleet2_f2 battery_fleet2_f2 fcd_fleet2_f2" vType="eTruck" speedFactor="1.02" vaporized="">
        <battery depleted="0" actualBatteryCapacity="393731.53" totalEnergyConsumed="13489.81" totalEnergyRegenerated="54.67"/>
    </tripinfo>
    <tripinfo id="fleet1_f2" depart="1.00" departLane="1389427542_0" departPos="12.10" departSpeed="26.92" departDelay="0.00" arrival="1020.80" arrivalLane="24963101_0" arrivalPos="986.28" arrivalSpeed="32.53" duration="1019.80" routeLength="27557.65" waitingTime="0.00" waitingCount="0" stopTime="0.00" timeLoss="3.29" rerouteNo="0" devices="tripinfo_fleet1_f2 battery_fleet1_f2 fcd_fleet1_f2" vType="eTruck" speedFactor="0.97" vaporized="">
        <battery depleted="0" actualBatteryCapacity="394569.88" totalEnergyConsumed="13242.57" totalEnergyRegenerated="62.45"/>
    </tripinfo>
    <tripinfo id="fleet2_f3" depart="32.00" departLane="1389427542_0" departPos="12.10" departSpeed="25.43" departDelay="0.00" arrival="1108.90" arrivalLane="24963101_0" arrivalPos="986.28" arrivalSpeed="32.69" duration="1076.90" routeLength="27557.65" waitingTime="0.00" waitingCount="0" stopTime="0.00" timeLoss="2.45" rerouteNo="0" devices="tripinfo_fleet2_f3 battery_fleet2_f3 fcd_fleet2_f3" vType="eTruck" speedFactor="0.92" vaporized="">
        <battery depleted="0" actualBatteryCapacity="395226.03" totalEnergyConsumed="13045.79" totalEnergyRegenerated="46.82"/>
    </tripinfo>
</tripinfos>
