<?xml version="1.0" encoding="UTF-8"?>

<!-- generated on 2025-11-11 17:08:28 by Eclipse SUMO sumo Version 1.24.0
<sumoConfiguration xmlns:xsi="http://www.w3.org/2001/XMLSchema-instance" xsi:noNamespaceSchemaLocation="http://sumo.dlr.de/xsd/sumoConfiguration.xsd">

    <input>
        <net-file value="./scenario/highway.net.xml"/>
        <route-files value="./scenario/ERS.rou.xml"/>
        <additional-files value="./scenario/ERS.add.xml"/>
    </input>

    <output>
        <battery-output value="./scenario/battery_output.xml"/>
        <fcd-output value="./scenario/fcd_output.xml"/>
    </output>

    <time>
        <begin value="0"/>
        <step-length value="0.1"/>
    </time>

    <report>
        <no-warnings value="true"/>
        <no-step-log value="true"/>
    </report>

    <traci_server>
        <remote-port value="52713"/>
    </traci_server>

</sumoConfiguration>
-->

<fcd-export xmlns:xsi="http://www.w3.org/2001/XMLSchema-instance" xsi:noNamespaceSchemaLocation="http://sumo.dlr.de/xsd/fcd_file.xsd">
    <timestep time="0.00">
        <vehicle id="fleet1_leader" x="15483.15" y="18.54" angle="355.98" type="eTruck" speed="28.61" pos="12.10" lane="1389427542_0" slope="0.00"/>
    </timestep>
    <timestep time="0.10">
        <vehicle id="fleet1_leader" x="15482.95" y="21.40" angle="355.98" type="eTruck" speed="28.61" pos="14.96" lane="1389427542_0" slope="0.00"/>
    </timestep>
    <timestep time="0.20">
        <vehicle id="fleet1_leader" x="15482.75" y="24.25" angle="355.98" type="eTruck" speed="28.61" pos="17.82" lane="1389427542_0" slope="0.00"/>
    </timestep>
    <timestep time="0.30">
        <vehicle id="fleet1_leader" x="15482.55" y="27.10" angle="355.98" type="eTruck" speed="28.61" pos="20.68" lane="1389427542_0" slope="0.00"/>
    </timestep>
    <timestep time="0.40">
        <vehicle id="fleet1_leader" x="15482.35" y="29.96" angle="355.98" type="eTruck" speed="28.61" pos="23.54" lane="1389427542_0" slope="0.00"/>
    </timestep>
    <timestep time="0.50">
        <vehicle id="fleet1_leader" x="15482.15" y="32.81" angle="355.98" type="eTruck" speed="28.60" pos="26.40" lane="1389427542_0" slope="0.00"/>
    </timestep>
    <timestep time="0.60">
        <vehicle id="fleet1_leader" x="15481.95" y="35.66" angle="355.98" type="eTruck" speed="28.60" pos="29.26" lane="1389427542_0" slope="0.00"/>
    </timestep>
    <timestep time="0.70">
        <vehicle id="fleet1_leader" x="15481.75" y="38.52" angle="355.98" type="eTruck" speed="28.60" pos="32.12" lane="1389427542_0" slope="0.00"/>
    </timestep>
    <timestep time="0.80">
        <vehicle id="fleet1_leader" x="15481.55" y="41.37" angle="355.98" type="eTruck" speed="28.59" pos="34.98" lane="1389427542_0" slope="0.00"/>
    </timestep>
    <timestep time="0.90">
        <vehicle id="fleet1_leader" x="15481.34" y="44.22" angle="355.98" type="eTruck" speed="28.59" pos="37.84" lane="1389427542_0" slope="0.00"/>
    </timestep>
    <timestep time="1.00">
        <vehicle id="fleet1_f2" x="15483.15" y="18.54" angle="355.98" type="eTruck" speed="26.92" pos="12.10" lane="1389427542_0" slope="0.00"/>
        <vehicle id="fleet1_leader" x="15481.14" y="47.07" angle="355.98" type="eTruck" speed="28.58" pos="40.70" lane="1389427542_0" slope="0.00"/>
    </timestep>
    <timestep time="1.10">
        <vehicle id="fleet1_f2" x="15482.96" y="21.23" angle="355.98" type="eTruck" speed="26.92" pos="14.79" lane="1389427542_0" slope="0.00"/>
        <vehicle id="fleet1_leader" x="15480.94" y="49.92" angle="355.98" type="eTruck" speed="28.57" pos="43.56" lane="1389427542_0" slope="0.00"/>
    </timestep>
    <timestep time="1.20">
        <vehicle id="fleet1_f2" x="15482.77" y="23.91" angle="355.98" type="eTruck" speed="26.92" pos="17.48" lane="1389427542_0" slope="0.00"/>
        <vehicle id="fleet1_leader" x="15480.74" y="52.77" angle="355.98" type="eTruck" speed="28.56" pos="46.41" lane="1389427542_0" slope="0.00"/>
    </timestep>
    <timestep time="1.30">
        <vehicle id="fleet1_f2" x="15482.58" y="26.60" angle="355.98" type="eTruck" speed="26.92" pos="20.18" lane="1389427542_0" slope="0.00"/>
        <vehicle id="fleet1_leader" x="15480.54" y="55.62" angle="355.98" type="eTruck" speed="28.56" pos="49.27" lane="1389427542_0" slope="0.00"/>
    </timestep>
    <timestep time="1.40">
        <vehicle id="fleet1_f2" x="15482.40" y="29.28" angle="355.98" type="eTruck" speed="26.92" pos="22.87" lane="1389427542_0" slope="0.00"/>
        <vehicle id="fleet1_leader" x="15480.34" y="58.47" angle="355.98" type="eTruck" speed="28.55" pos="52.13" lane="1389427542_0" slope="0.00"/>
    </timestep>
    <timestep time="1.50">
        <vehicle id="fleet1_f2" x="15482.21" y="31.97" angle="355.98" type="eTruck" speed="26.92" pos="25.56" lane="1389427542_0" slope="0.00"/>
        <vehicle id="fleet1_leader" x="15480.14" y="61.32" angle="355.98" type="eTruck" speed="28.55" pos="54.98" lane="1389427542_0" slope="0.00"/>
    </timestep>
    <timestep time="1.60">
        <vehicle id="fleet1_f2" x="15482.02" y="34.66" angle="355.98" type="eTruck" speed="26.92" pos="28.25" lane="1389427542_0" slope="0.00"/>
        <vehicle id="fleet1_leader" x="15479.94" y="64.16" angle="355.98" type="eTruck" speed="28.54" pos="57.83" lane="1389427542_0" slope="0.00"/>
    </timestep>
    <timestep time="1.70">
        <vehicle id="fleet1_f2" x="15481.83" y="37.34" angle="355.98" type="eTruck" speed="26.92" pos="30.95" lane="1389427542_0" slope="0.00"/>
        <vehicle id="fleet1_leader" x="15479.74" y="67.01" angle="355.98" type="eTruck" speed="28.53" pos="60.69" lane="1389427542_0" slope="0.00"/>
    </timestep>
    <timestep time="1.80">
        <vehicle id="fleet1_f2" x="15481.64" y="40.03" angle="355.98" type="eTruck" speed="26.91" pos="33.64" lane="1389427542_0" slope="0.00"/>
        <vehicle id="fleet1_leader" x="15479.54" y="69.86" angle="355.98" type="eTruck" speed="28.53" pos="63.54" lane="1389427542_0" slope="0.00"/>
    </timestep>
    <timestep time="1.90">
        <vehicle id="fleet1_f2" x="15481.45" y="42.71" angle="355.98" type="eTruck" speed="26.91" pos="36.33" lane="1389427542_0" slope="0.00"/>
        <vehicle id="fleet1_leader" x="15479.34" y="72.70" angle="355.98" type="eTruck" speed="28.52" pos="66.39" lane="1389427542_0" slope="0.00"/>
    </timestep>
    <timestep time="2.00">
        <vehicle id="fleet1_f2" x="15481.26" y="45.39" angle="355.98" type="eTruck" speed="26.91" pos="39.02" lane="1389427542_0" slope="0.00"/>
        <vehicle id="fleet1_f3" x="15483.15" y="18.54" angle="355.98" type="eTruck" speed="27.92" pos="12.10" lane="1389427542_0" slope="0.00"/>
        <vehicle id="fleet1_leader" x="15479.14" y="75.55" angle="355.98" type="eTruck" speed="28.51" pos="69.24" lane="1389427542_0" slope="0.00"/>
    </timestep>
    <timestep time="2.10">
        <vehicle id="fleet1_f2" x="15481.07" y="48.08" angle="355.98" type="eTruck" speed="26.90" pos="41.71" lane="1389427542_0" slope="0.00"/>
        <vehicle id="fleet1_f3" x="15479.77" y="21.09" angle="355.98" type="eTruck" speed="27.79" pos="14.88" lane="1389427542_1" slope="0.00"/>
        <vehicle id="fleet1_leader" x="15475.75" y="78.17" angle="355.98" type="eTruck" speed="28.51" pos="72.09" lane="1389427542_1" slope="0.00"/>
    </timestep>
    <timestep time="2.20">
        <vehicle id="fleet1_f2" x="15480.88" y="50.76" angle="355.98" type="eTruck" speed="26.90" pos="44.40" lane="1389427542_0" slope="0.00"/>
        <vehicle id="fleet1_f3" x="15479.57" y="23.85" angle="355.98" type="eTruck" speed="27.67" pos="17.65" lane="1389427542_1" slope="0.00"/>
        <vehicle id="fleet1_leader" x="15475.55" y="81.01" angle="355.98" type="eTruck" speed="28.50" pos="74.94" lane="1389427542_1" slope="0.00"/>
    </timestep>
    <timestep time="2.30">
        <vehicle id="fleet1_f2" x="15480.70" y="53.45" angle="355.98" type="eTruck" speed="26.90" pos="47.09" lane="1389427542_0" slope="0.00"/>
        <vehicle id="fleet1_f3" x="15479.38" y="26.60" angle="355.98" type="eTruck" speed="27.56" pos="20.40" lane="1389427542_1" slope="0.00"/>
        <vehicle id="fleet1_leader" x="15475.35" y="83.85" angle="355.98" type="eTruck" speed="28.49" pos="77.79" lane="1389427542_1" slope="0.00"/>
    </timestep>
    <timestep time="2.40">
        <vehicle id="fleet1_f2" x="15480.51" y="56.13" angle="355.98" type="eTruck" speed="26.90" pos="49.78" lane="1389427542_0" slope="0.00"/>
        <vehicle id="fleet1_f3" x="15479.19" y="29.34" angle="355.98" type="eTruck" speed="27.46" pos="23.15" lane="1389427542_1" slope="0.00"/>
        <vehicle id="fleet1_leader" x="15475.15" y="86.69" angle="355.98" type="eTruck" speed="28.48" pos="80.64" lane="1389427542_1" slope="0.00"/>
    </timestep>
    <timestep time="2.50">
        <vehicle id="fleet1_f2" x="15480.32" y="58.81" angle="355.98" type="eTruck" speed="26.91" pos="52.47" lane="1389427542_0" slope="0.00"/>
        <vehicle id="fleet1_f3" x="15478.99" y="32.07" angle="355.98" type="eTruck" speed="27.38" pos="25.89" lane="1389427542_1" slope="0.00"/>
        <vehicle id="fleet1_leader" x="15474.95" y="89.53" angle="355.98" type="eTruck" speed="28.47" pos="83.49" lane="1389427542_1" slope="0.00"/>
    </timestep>
    <timestep time="2.60">
        <vehicle id="fleet1_f2" x="15480.13" y="61.50" angle="355.98" type="eTruck" speed="26.91" pos="55.16" lane="1389427542_0" slope="0.00"/>
        <vehicle id="fleet1_f3" x="15475.61" y="34.57" angle="355.98" type="eTruck" speed="27.36" pos="28.62" lane="1389427542_2" slope="0.00"/>
        <vehicle id="fleet1_leader" x="15471.56" y="92.14" angle="355.98" type="eTruck" speed="28.47" pos="86.33" lane="1389427542_2" slope="0.00"/>
    </timestep>
    <timestep time="2.70">
        <vehicle id="fleet1_f2" x="15479.94" y="64.18" angle="355.98" type="eTruck" speed="26.92" pos="57.85" lane="1389427542_0" slope="0.00"/>
        <vehicle id="fleet1_f3" x="15475.42" y="37.30" angle="355.98" type="eTruck" speed="27.37" pos="31.36" lane="1389427542_2" slope="0.00"/>
        <vehicle id="fleet1_leader" x="15471.36" y="94.98" angle="355.98" type="eTruck" speed="28.46" pos="89.18" lane="1389427542_2" slope="0.00"/>
    </timestep>
    <timestep time="2.80">
        <vehicle id="fleet1_f2" x="15479.75" y="66.87" angle="355.98" type="eTruck" speed="26.94" pos="60.55" lane="1389427542_0" slope="0.00"/>
        <vehicle id="fleet1_f3" x="15475.23" y="40.03" angle="355.98" type="eTruck" speed="27.38" pos="34.10" lane="1389427542_2" slope="0.00"/>
        <vehicle id="fleet1_leader" x="15471.16" y="97.81" angle="355.98" type="eTruck" speed="28.46" pos="92.03" lane="1389427542_2" slope="0.00"/>
    </timestep>
    <timestep time="2.90">
        <vehicle id="fleet1_f2" x="15479.56" y="69.56" angle="355.98" type="eTruck" speed="26.95" pos="63.24" lane="1389427542_0" slope="0.00"/>
        <vehicle id="fleet1_f3" x="15475.04" y="42.76" angle="355.98" type="eTruck" speed="27.38" pos="36.83" lane="1389427542_2" slope="0.00"/>
        <vehicle id="fleet1_leader" x="15470.96" y="100.65" angle="355.98" type="eTruck" speed="28.45" pos="94.87" lane="1389427542_2" slope="0.00"/>
    </timestep>
    <timestep time="3.00">
        <vehicle id="fleet1_f2" x="15479.37" y="72.25" angle="355.98" type="eTruck" speed="26.96" pos="65.94" lane="1389427542_0" slope="0.00"/>
        <vehicle id="fleet1_f3" x="15474.84" y="45.49" angle="355.98" type="eTruck" speed="27.39" pos="39.57" lane="1389427542_2" slope="0.00"/>
        <vehicle id="fleet1_leader" x="15470.76" y="103.49" angle="355.98" type="eTruck" speed="28.45" pos="97.72" lane="1389427542_2" slope="0.00"/>
    </timestep>
    <timestep time="3.10">
        <vehicle id="fleet1_f2" x="15479.18" y="74.94" angle="355.98" type="eTruck" speed="26.98" pos="68.64" lane="1389427542_0" slope="0.00"/>
        <vehicle id="fleet1_f3" x="15474.65" y="48.23" angle="355.98" type="eTruck" speed="27.40" pos="42.31" lane="1389427542_2" slope="0.00"/>
        <vehicle id="fleet1_leader" x="15470.57" y="106.33" angle="355.98" type="eTruck" speed="28.45" pos="100.56" lane="1389427542_2" slope="0.00"/>
    </timestep>
    <timestep time="3.20">
        <vehicle id="fleet1_f2" x="15478.99" y="77.63" angle="355.98" type="eTruck" speed="26.99" pos="71.33" lane="1389427542_0" slope="0.00"/>
        <vehicle id="fleet1_f3" x="15474.46" y="50.96" angle="355.98" type="eTruck" speed="27.41" pos="45.06" lane="1389427542_2" slope="0.00"/>
        <vehicle id="fleet1_leader" x="15470.37" y="109.17" angle="355.98" type="eTruck" speed="28.45" pos="103.41" lane="1389427542_2" slope="0.00"/>
    </timestep>
    <timestep time="3.30">
        <vehicle id="fleet1_f2" x="15478.81" y="80.33" angle="355.98" type="eTruck" speed="27.00" pos="74.03" lane="1389427542_0" slope="0.00"/>
        <vehicle id="fleet1_f3" x="15474.27" y="53.70" angle="355.98" type="eTruck" speed="27.42" pos="47.80" lane="1389427542_2" slope="0.00"/>
        <vehicle id="fleet1_leader" x="15470.17" y="112.00" angle="355.98" type="eTruck" speed="28.45" pos="106.25" lane="1389427542_2" slope="0.00"/>
    </timestep>
    <timestep time="3.40">
        <vehicle id="fleet1_f2" x="15478.62" y="83.02" angle="355.98" type="eTruck" speed="27.01" pos="76.74" lane="1389427542_0" slope="0.00"/>
        <vehicle id="fleet1_f3" x="15474.07" y="56.43" angle="355.98" type="eTruck" speed="27.43" pos="50.54" lane="1389427542_2" slope="0.00"/>
        <vehicle id="fleet1_leader" x="15469.97" y="114.84" angle="355.98" type="eTruck" speed="28.45" pos="109.10" lane="1389427542_2" slope="0.00"/>
    </timestep>
    <timestep time="3.50">
        <vehicle id="fleet1_f2" x="15478.43" y="85.72" angle="355.98" type="eTruck" speed="27.02" pos="79.44" lane="1389427542_0" slope="0.00"/>
        <vehicle id="fleet1_f3" x="15473.88" y="59.17" angle="355.98" type="eTruck" speed="27.44" pos="53.29" lane="1389427542_2" slope="0.00"/>
        <vehicle id="fleet1_leader" x="15469.77" y="117.68" angle="355.98" type="eTruck" speed="28.45" pos="111.94" lane="1389427542_2" slope="0.00"/>
    </timestep>
    <timestep time="3.60">
        <vehicle id="fleet1_f2" x="15478.24" y="88.41" angle="355.98" type="eTruck" speed="27.03" pos="82.14" lane="1389427542_0" slope="0.00"/>
        <vehicle id="fleet1_f3" x="15473.69" y="61.91" angle="355.98" type="eTruck" speed="27.46" pos="56.03" lane="1389427542_2" slope="0.00"/>
        <vehicle id="fleet1_leader" x="15469.57" y="120.52" angle="355.98" type="eTruck" speed="28.44" pos="114.78" lane="1389427542_2" slope="0.00"/>
    </timestep>
    <timestep time="3.70">
        <vehicle id="fleet1_f2" x="15478.05" y="91.11" angle="355.98" type="eTruck" speed="27.04" pos="84.84" lane="1389427542_0" slope="0.00"/>
        <vehicle id="fleet1_f3" x="15473.50" y="64.65" angle="355.98" type="eTruck" speed="27.47" pos="58.78" lane="1389427542_2" slope="0.00"/>
        <vehicle id="fleet1_leader" x="15469.37" y="123.35" angle="355.98" type="eTruck" speed="28.45" pos="117.63" lane="1389427542_2" slope="0.00"/>
    </timestep>
    <timestep time="3.80">
        <vehicle id="fleet1_f2" x="15477.86" y="93.81" angle="355.98" type="eTruck" speed="27.05" pos="87.55" lane="1389427542_0" slope="0.00"/>
        <vehicle id="fleet1_f3" x="15473.30" y="67.39" angle="355.98" type="eTruck" speed="27.48" pos="61.53" lane="1389427542_2" slope="0.00"/>
        <vehicle id="fleet1_leader" x="15469.17" y="126.19" angle="355.98" type="eTruck" speed="28.45" pos="120.47" lane="1389427542_2" slope="0.00"/>
    </timestep>
    <timestep time="3.90">
        <vehicle id="fleet1_f2" x="15477.67" y="96.51" angle="355.98" type="eTruck" speed="27.06" pos="90.26" lane="1389427542_0" slope="0.00"/>
        <vehicle id="fleet1_f3" x="15473.11" y="70.13" angle="355.98" type="eTruck" speed="27.50" pos="64.28" lane="1389427542_2" slope="0.00"/>
        <vehicle id="fleet1_leader" x="15468.97" y="129.03" angle="355.98" type="eTruck" speed="28.45" pos="123.32" lane="1389427542_2" slope="0.00"/>
    </timestep>
    <timestep time="4.00">
        <vehicle id="fleet1_f2" x="15477.48" y="99.21" angle="355.98" type="eTruck" speed="27.07" pos="92.96" lane="1389427542_0" slope="0.00"/>
        <vehicle id="fleet1_f3" x="15472.92" y="72.88" angle="355.98" type="eTruck" speed="27.52" pos="67.03" lane="1389427542_2" slope="0.00"/>
        <vehicle id="fleet1_leader" x="15468.77" y="131.87" angle="355.98" type="eTruck" speed="28.45" pos="126.16" lane="1389427542_2" slope="0.00"/>
    </timestep>
    <timestep time="4.10">
        <vehicle id="fleet1_f2" x="15477.29" y="101.91" angle="355.98" type="eTruck" speed="27.08" pos="95.67" lane="1389427542_0" slope="0.00"/>
        <vehicle id="fleet1_f3" x="15472.72" y="75.63" angle="355.98" type="eTruck" speed="27.55" pos="69.78" lane="1389427542_2" slope="0.00"/>
        <vehicle id="fleet1_leader" x="15468.57" y="134.71" angle="355.98" type="eTruck" speed="28.45" pos="129.01" lane="1389427542_2" slope="0.00"/>
    </timestep>
    <timestep time="4.20">
        <vehicle id="fleet1_f2" x="15477.10" y="104.61" angle="355.98" type="eTruck" speed="27.08" pos="98.38" lane="1389427542_0" slope="0.00"/>
        <vehicle id="fleet1_f3" x="15472.53" y="78.38" angle="355.98" type="eTruck" speed="27.57" pos="72.54" lane="1389427542_2" slope="0.00"/>
        <vehicle id="fleet1_leader" x="15468.37" y="137.54" angle="355.98" type="eTruck" speed="28.45" pos="131.86" lane="1389427542_2" slope="0.00"/>
    </timestep>
    <timestep time="4.30">
        <vehicle id="fleet1_f2" x="15476.91" y="107.31" angle="355.98" type="eTruck" speed="27.09" pos="101.09" lane="1389427542_0" slope="0.00"/>
        <vehicle id="fleet1_f3" x="15472.34" y="81.13" angle="355.98" type="eTruck" speed="27.58" pos="75.30" lane="1389427542_2" slope="0.00"/>
        <vehicle id="fleet1_leader" x="15468.17" y="140.38" angle="355.98" type="eTruck" speed="28.45" pos="134.70" lane="1389427542_2" slope="0.00"/>
    </timestep>
    <timestep time="4.40">
        <vehicle id="fleet1_f2" x="15476.72" y="110.02" angle="355.98" type="eTruck" speed="27.10" pos="103.80" lane="1389427542_0" slope="0.00"/>
        <vehicle id="fleet1_f3" x="15472.14" y="83.88" angle="355.98" type="eTruck" speed="27.60" pos="78.06" lane="1389427542_2" slope="0.00"/>
        <vehicle id="fleet1_leader" x="15467.97" y="143.22" angle="355.98" type="eTruck" speed="28.46" pos="137.55" lane="1389427542_2" slope="0.00"/>
    </timestep>
    <timestep time="4.50">
        <vehicle id="fleet1_f2" x="15476.53" y="112.72" angle="355.98" type="eTruck" speed="27.10" pos="106.51" lane="1389427542_0" slope="0.00"/>
        <vehicle id="fleet1_f3" x="15471.95" y="86.64" angle="355.98" type="eTruck" speed="27.61" pos="80.82" lane="1389427542_2" slope="0.00"/>
        <vehicle id="fleet1_leader" x="15467.77" y="146.06" angle="355.98" type="eTruck" speed="28.46" pos="140.39" lane="1389427542_2" slope="0.00"/>
    </timestep>
    <timestep time="4.60">
        <vehicle id="fleet1_f2" x="15476.34" y="115.43" angle="355.98" type="eTruck" speed="27.11" pos="109.22" lane="1389427542_0" slope="0.00"/>
        <vehicle id="fleet1_f3" x="15471.76" y="89.39" angle="355.98" type="eTruck" speed="27.63" pos="83.58" lane="1389427542_2" slope="0.00"/>
        <vehicle id="fleet1_leader" x="15467.57" y="148.90" angle="355.98" type="eTruck" speed="28.46" pos="143.24" lane="1389427542_2" slope="0.00"/>
    </timestep>
    <timestep time="4.70">
        <vehicle id="fleet1_f2" x="15476.15" y="118.13" angle="355.98" type="eTruck" speed="27.12" pos="111.93" lane="1389427542_0" slope="0.00"/>
        <vehicle id="fleet1_f3" x="15471.56" y="92.15" angle="355.98" type="eTruck" speed="27.65" pos="86.35" lane="1389427542_2" slope="0.00"/>
        <vehicle id="fleet1_leader" x="15467.37" y="151.74" angle="355.98" type="eTruck" speed="28.47" pos="146.09" lane="1389427542_2" slope="0.00"/>
    </timestep>
    <timestep time="4.80">
        <vehicle id="fleet1_f2" x="15475.96" y="120.84" angle="355.98" type="eTruck" speed="27.12" pos="114.64" lane="1389427542_0" slope="0.00"/>
        <vehicle id="fleet1_f3" x="15471.37" y="94.91" angle="355.98" type="eTruck" speed="27.67" pos="89.11" lane="1389427542_2" slope="0.00"/>
        <vehicle id="fleet1_leader" x="15467.17" y="154.58" angle="355.98" type="eTruck" speed="28.47" pos="148.93" lane="1389427542_2" slope="0.00"/>
    </timestep>
    <timestep time="4.90">
        <vehicle id="fleet1_f2" x="15475.77" y="123.54" angle="355.98" type="eTruck" speed="27.13" pos="117.36" lane="1389427542_0" slope="0.00"/>
        <vehicle id="fleet1_f3" x="15471.17" y="97.67" angle="355.98" type="eTruck" speed="27.68" pos="91.88" lane="1389427542_2" slope="0.00"/>
        <vehicle id="fleet1_leader" x="15466.97" y="157.42" angle="355.98" type="eTruck" speed="28.47" pos="151.78" lane="1389427542_2" slope="0.00"/>
    </timestep>
    <timestep time="5.00">
        <vehicle id="fleet1_f2" x="15475.58" y="126.25" angle="355.98" type="eTruck" speed="27.13" pos="120.07" lane="1389427542_0" slope="0.00"/>
        <vehicle id="fleet1_f3" x="15470.98" y="100.43" angle="355.98" type="eTruck" speed="27.69" pos="94.65" lane="1389427542_2" slope="0.00"/>
        <vehicle id="fleet1_leader" x="15466.77" y="160.26" angle="355.98" type="eTruck" speed="28.47" pos="154.63" lane="1389427542_2" slope="0.00"/>
    </timestep>
    <timestep time="5.10">
        <vehicle id="fleet1_f2" x="15475.39" y="128.96" angle="355.98" type="eTruck" speed="27.13" pos="122.78" lane="1389427542_0" slope="0.00"/>
        <vehicle id="fleet1_f3" x="15470.79" y="103.20" angle="355.98" type="eTruck" speed="27.70" pos="97.42" lane="1389427542_2" slope="0.00"/>
        <vehicle id="fleet1_leader" x="15466.57" y="163.10" angle="355.98" type="eTruck" speed="28.47" pos="157.47" lane="1389427542_2" slope="0.00"/>
    </timestep>
    <timestep time="5.20">
        <vehicle id="fleet1_f2" x="15475.19" y="131.66" angle="355.98" type="eTruck" speed="27.13" pos="125.49" lane="1389427542_0" slope="0.00"/>
        <vehicle id="fleet1_f3" x="15470.59" y="105.96" angle="355.98" type="eTruck" speed="27.71" pos="100.19" lane="1389427542_2" slope="0.00"/>
        <vehicle id="fleet1_leader" x="15466.37" y="165.94" angle="355.98" type="eTruck" speed="28.47" pos="160.32" lane="1389427542_2" slope="0.00"/>
    </timestep>
    <timestep time="5.30">
        <vehicle id="fleet1_f2" x="15475.00" y="134.37" angle="355.98" type="eTruck" speed="27.13" pos="128.21" lane="1389427542_0" slope="0.00"/>
        <vehicle id="fleet1_f3" x="15470.40" y="108.73" angle="355.98" type="eTruck" speed="27.73" pos="102.97" lane="1389427542_2" slope="0.00"/>
        <vehicle id="fleet1_leader" x="15466.17" y="168.78" angle="355.98" type="eTruck" speed="28.48" pos="163.17" lane="1389427542_2" slope="0.00"/>
    </timestep>
    <timestep time="5.40">
        <vehicle id="fleet1_f2" x="15474.81" y="137.08" angle="355.98" type="eTruck" speed="27.14" pos="130.92" lane="1389427542_0" slope="0.00"/>
        <vehicle id="fleet1_f3" x="15470.20" y="111.49" angle="355.98" type="eTruck" speed="27.74" pos="105.74" lane="1389427542_2" slope="0.00"/>
        <vehicle id="fleet1_leader" x="15465.97" y="171.62" angle="355.98" type="eTruck" speed="28.48" pos="166.02" lane="1389427542_2" slope="0.00"/>
    </timestep>
    <timestep time="5.50">
        <vehicle id="fleet1_f2" x="15474.62" y="139.78" angle="355.98" type="eTruck" speed="27.14" pos="133.64" lane="1389427542_0" slope="0.00"/>
        <vehicle id="fleet1_f3" x="15470.01" y="114.26" angle="355.98" type="eTruck" speed="27.75" pos="108.51" lane="1389427542_2" slope="0.00"/>
        <vehicle id="fleet1_leader" x="15465.77" y="174.46" angle="355.98" type="eTruck" speed="28.48" pos="168.86" lane="1389427542_2" slope="0.00"/>
    </timestep>
    <timestep time="5.60">
        <vehicle id="fleet1_f2" x="15474.43" y="142.49" angle="355.98" type="eTruck" speed="27.15" pos="136.35" lane="1389427542_0" slope="0.00"/>
        <vehicle id="fleet1_f3" x="15469.81" y="117.03" angle="355.98" type="eTruck" speed="27.76" pos="111.29" lane="1389427542_2" slope="0.00"/>
        <vehicle id="fleet1_leader" x="15465.57" y="177.30" angle="355.98" type="eTruck" speed="28.48" pos="171.71" lane="1389427542_2" slope="0.00"/>
    </timestep>
    <timestep time="5.70">
        <vehicle id="fleet1_f2" x="15474.24" y="145.20" angle="355.98" type="eTruck" speed="27.15" pos="139.07" lane="1389427542_0" slope="0.00"/>
        <vehicle id="fleet1_f3" x="15469.62" y="119.80" angle="355.98" type="eTruck" speed="27.78" pos="114.07" lane="1389427542_2" slope="0.00"/>
        <vehicle id="fleet1_leader" x="15465.37" y="180.14" angle="355.98" type="eTruck" speed="28.48" pos="174.56" lane="1389427542_2" slope="0.00"/>
    </timestep>
    <timestep time="5.80">
        <vehicle id="fleet1_f2" x="15474.05" y="147.91" angle="355.98" type="eTruck" speed="27.16" pos="141.78" lane="1389427542_0" slope="0.00"/>
        <vehicle id="fleet1_f3" x="15469.42" y="122.57" angle="355.98" type="eTruck" speed="27.79" pos="116.85" lane="1389427542_2" slope="0.00"/>
        <vehicle id="fleet1_leader" x="15465.17" y="182.98" angle="355.98" type="eTruck" speed="28.48" pos="177.41" lane="1389427542_2" slope="0.00"/>
    </timestep>
    <timestep time="5.90">
        <vehicle id="fleet1_f2" x="15473.86" y="150.62" angle="355.98" type="eTruck" speed="27.16" pos="144.50" lane="1389427542_0" slope="0.00"/>
        <vehicle id="fleet1_f3" x="15469.23" y="125.35" angle="355.98" type="eTruck" speed="27.80" pos="119.63" lane="1389427542_2" slope="0.00"/>
        <vehicle id="fleet1_leader" x="15464.97" y="185.82" angle="355.98" type="eTruck" speed="28.49" pos="180.26" lane="1389427542_2" slope="0.00"/>
    </timestep>
    <timestep time="6.00">
        <vehicle id="fleet1_f2" x="15473.67" y="153.33" angle="355.98" type="eTruck" speed="27.15" pos="147.21" lane="1389427542_0" slope="0.00"/>
        <vehicle id="fleet1_f3" x="15469.03" y="128.12" angle="355.98" type="eTruck" speed="27.81" pos="122.41" lane="1389427542_2" slope="0.00"/>
        <vehicle id="fleet1_leader" x="15464.77" y="188.66" angle="355.98" type="eTruck" speed="28.48" pos="183.11" lane="1389427542_2" slope="0.00"/>
    </timestep>
    <timestep time="6.10">
        <vehicle id="fleet1_f2" x="15473.48" y="156.04" angle="355.98" type="eTruck" speed="27.15" pos="149.93" lane="1389427542_0" slope="0.00"/>
        <vehicle id="fleet1_f3" x="15468.84" y="130.90" angle="355.98" type="eTruck" speed="27.83" pos="125.19" lane="1389427542_2" slope="0.00"/>
        <vehicle id="fleet1_leader" x="15464.57" y="191.51" angle="355.98" type="eTruck" speed="28.48" pos="185.95" lane="1389427542_2" slope="0.00"/>
    </timestep>
    <timestep time="6.20">
        <vehicle id="fleet1_f2" x="15473.29" y="158.75" angle="355.98" type="eTruck" speed="27.15" pos="152.64" lane="1389427542_0" slope="0.00"/>
        <vehicle id="fleet1_f3" x="15468.64" y="133.67" angle="355.98" type="eTruck" speed="27.84" pos="127.97" lane="1389427542_2" slope="0.00"/>
        <vehicle id="fleet1_leader" x="15464.37" y="194.35" angle="355.98" type="eTruck" speed="28.48" pos="188.80" lane="1389427542_2" slope="0.00"/>
    </timestep>
    <timestep time="6.30">
        <vehicle id="fleet1_f2" x="15473.10" y="161.45" angle="355.98" type="eTruck" speed="27.14" pos="155.36" lane="1389427542_0" slope="0.00"/>
        <vehicle id="fleet1_f3" x="15468.45" y="136.45" angle="355.98" type="eTruck" speed="27.85" pos="130.76" lane="1389427542_2" slope="0.00"/>
        <vehicle id="fleet1_leader" x="15464.18" y="197.19" angle="355.98" type="eTruck" speed="28.48" pos="191.65" lane="1389427542_2" slope="0.00"/>
    </timestep>
    <timestep time="6.40">
        <vehicle id="fleet1_f2" x="15472.91" y="164.16" angle="355.98" type="eTruck" speed="27.14" pos="158.07" lane="1389427542_0" slope="0.00"/>
        <vehicle id="fleet1_f3" x="15468.25" y="139.23" angle="355.98" type="eTruck" speed="27.86" pos="133.55" lane="1389427542_2" slope="0.00"/>
        <vehicle id="fleet1_leader" x="15463.98" y="200.03" angle="355.98" type="eTruck" speed="28.48" pos="194.50" lane="1389427542_2" slope="0.00"/>
    </timestep>
    <timestep time="6.50">
        <vehicle id="fleet1_f2" x="15472.72" y="166.87" angle="355.98" type="eTruck" speed="27.14" pos="160.78" lane="1389427542_0" slope="0.00"/>
        <vehicle id="fleet1_f3" x="15468.06" y="142.01" angle="355.98" type="eTruck" speed="27.88" pos="136.33" lane="1389427542_2" slope="0.00"/>
        <vehicle id="fleet1_leader" x="15463.78" y="202.87" angle="355.98" type="eTruck" speed="28.48" pos="197.35" lane="1389427542_2" slope="0.00"/>
    </timestep>
    <timestep time="6.60">
        <vehicle id="fleet1_f2" x="15472.53" y="169.57" angle="355.98" type="eTruck" speed="27.14" pos="163.50" lane="1389427542_0" slope="0.00"/>
        <vehicle id="fleet1_f3" x="15467.86" y="144.79" angle="355.98" type="eTruck" speed="27.89" pos="139.12" lane="1389427542_2" slope="0.00"/>
        <vehicle id="fleet1_leader" x="15463.58" y="205.71" angle="355.98" type="eTruck" speed="28.48" pos="200.20" lane="1389427542_2" slope="0.00"/>
    </timestep>
    <timestep time="6.70">
        <vehicle id="fleet1_f2" x="15472.34" y="172.28" angle="355.98" type="eTruck" speed="27.14" pos="166.21" lane="1389427542_0" slope="0.00"/>
        <vehicle id="fleet1_f3" x="15467.66" y="147.58" angle="355.98" type="eTruck" speed="27.91" pos="141.91" lane="1389427542_2" slope="0.00"/>
        <vehicle id="fleet1_leader" x="15463.38" y="208.55" angle="355.98" type="eTruck" speed="28.48" pos="203.04" lane="1389427542_2" slope="0.00"/>
    </timestep>
    <timestep time="6.80">