<?xml version="1.0" encoding="UTF-8"?>

<!-- generated on 2025-10-27 14:19:00 by Eclipse SUMO GUI Version 1.24.0
<sumoConfiguration xmlns:xsi="http://www.w3.org/2001/XMLSchema-instance" xsi:noNamespaceSchemaLocation="http://sumo.dlr.de/xsd/sumoConfiguration.xsd">

    <input>
        <net-file value="C:\Users\24478\Desktop\ERS\highway.net.xml"/>
        <route-files value="C:\Users\24478\Desktop\ERS\ERS.rou.xml"/>
        <additional-files value="C:\Users\24478\Desktop\ERS\ERS.add.xml"/>
    </input>

    <output>
        <battery-output value="C:\Users\24478\Desktop\ERS\battery_output.xml"/>
        <fcd-output value="C:\Users\24478\Desktop\ERS\fcd_output.xml"/>
    </output>

    <time>
        <begin value="0"/>
        <end value="300"/>
    </time>

</sumoConfiguration>
-->

<fcd-export xmlns:xsi="http://www.w3.org/2001/XMLSchema-instance" xsi:noNamespaceSchemaLocation="http://sumo.dlr.de/xsd/fcd_file.xsd">
    <timestep time="0.00">
        <vehicle id="truck_1" x="1791.32" y="13.11" angle="313.61" type="eTruck" speed="33.33" pos="12.10" lane="E1_0" slope="0.00"/>
    </timestep>
    <timestep time="1.00">
        <vehicle id="truck_1" x="1767.45" y="35.85" angle="313.61" type="eTruck" speed="32.97" pos="45.07" lane="E1_0" slope="0.00"/>
    </timestep>
    <timestep time="2.00">
        <vehicle id="truck_1" x="1743.52" y="58.64" angle="313.61" type="eTruck" speed="33.05" pos="78.12" lane="E1_0" slope="0.00"/>
    </timestep>
    <timestep time="3.00">
        <vehicle id="truck_1" x="1719.41" y="81.61" angle="313.61" type="eTruck" speed="33.31" pos="111.43" lane="E1_0" slope="0.00"/>
    </timestep>
    <timestep time="4.00">
        <vehicle id="truck_1" x="1695.42" y="104.46" angle="313.61" type="eTruck" speed="33.13" pos="144.56" lane="E1_0" slope="0.00"/>
    </timestep>
    <timestep time="5.00">
        <vehicle id="truck_1" x="1671.46" y="127.28" angle="313.61" type="eTruck" speed="33.09" pos="177.66" lane="E1_0" slope="0.00"/>
    </timestep>
    <timestep time="6.00">
        <vehicle id="truck_1" x="1647.34" y="150.26" angle="313.61" type="eTruck" speed="33.31" pos="210.97" lane="E1_0" slope="0.00"/>
    </timestep>
    <timestep time="7.00">
        <vehicle id="truck_1" x="1623.43" y="173.03" angle="313.61" type="eTruck" speed="33.03" pos="244.00" lane="E1_0" slope="0.00"/>
    </timestep>
    <timestep time="8.00">
        <vehicle id="truck_1" x="1599.37" y="195.95" angle="313.61" type="eTruck" speed="33.23" pos="277.23" lane="E1_0" slope="0.00"/>
    </timestep>
    <timestep time="9.00">
        <vehicle id="truck_1" x="1575.82" y="219.22" angle="314.80" type="eTruck" speed="33.11" pos="310.35" lane="E1_0" slope="0.00"/>
    </timestep>
    <timestep time="10.00">
        <vehicle id="truck_1" x="1552.38" y="242.49" angle="314.80" type="eTruck" speed="33.03" pos="343.38" lane="E1_0" slope="0.00"/>
        <vehicle id="truck_2" x="1791.32" y="13.11" angle="313.61" type="eTruck" speed="33.33" pos="12.10" lane="E1_0" slope="0.00"/>
    </timestep>
    <timestep time="11.00">
        <vehicle id="truck_1" x="1528.74" y="265.97" angle="314.80" type="eTruck" speed="33.33" pos="376.71" lane="E1_0" slope="0.00"/>
        <vehicle id="truck_2" x="1767.38" y="35.91" angle="313.61" type="eTruck" speed="33.06" pos="45.16" lane="E1_0" slope="0.00"/>
    </timestep>
    <timestep time="12.00">
        <vehicle id="truck_1" x="1505.22" y="289.32" angle="314.80" type="eTruck" speed="33.14" pos="409.85" lane="E1_0" slope="0.00"/>
        <vehicle id="truck_2" x="1743.38" y="58.77" angle="313.61" type="eTruck" speed="33.15" pos="78.31" lane="E1_0" slope="0.00"/>
    </timestep>
    <timestep time="13.00">
        <vehicle id="truck_1" x="1481.73" y="312.64" angle="314.80" type="eTruck" speed="33.10" pos="442.95" lane="E1_0" slope="0.00"/>
        <vehicle id="truck_2" x="1719.33" y="81.68" angle="313.61" type="eTruck" speed="33.22" pos="111.53" lane="E1_0" slope="0.00"/>
    </timestep>
    <timestep time="14.00">
        <vehicle id="truck_1" x="1458.10" y="336.11" angle="314.80" type="eTruck" speed="33.31" pos="476.26" lane="E1_0" slope="0.00"/>
        <vehicle id="truck_2" x="1695.45" y="104.43" angle="313.61" type="eTruck" speed="32.98" pos="144.51" lane="E1_0" slope="0.00"/>
    </timestep>
    <timestep time="15.00">
        <vehicle id="truck_1" x="1434.92" y="359.87" angle="316.10" type="eTruck" speed="33.20" pos="509.46" lane="E1_0" slope="0.00"/>
        <vehicle id="truck_2" x="1671.52" y="127.22" angle="313.61" type="eTruck" speed="33.06" pos="177.57" lane="E1_0" slope="0.00"/>
    </timestep>
    <timestep time="16.00">
        <vehicle id="truck_1" x="1411.83" y="383.87" angle="316.10" type="eTruck" speed="33.31" pos="542.77" lane="E1_0" slope="0.00"/>
        <vehicle id="truck_2" x="1647.54" y="150.07" angle="313.61" type="eTruck" speed="33.12" pos="210.70" lane="E1_0" slope="0.00"/>
    </timestep>
    <timestep time="17.00">
        <vehicle id="truck_1" x="1388.81" y="407.79" angle="316.10" type="eTruck" speed="33.21" pos="575.98" lane="E1_0" slope="0.00"/>
        <vehicle id="truck_2" x="1623.59" y="172.88" angle="313.61" type="eTruck" speed="33.08" pos="243.77" lane="E1_0" slope="0.00"/>
    </timestep>
    <timestep time="18.00">
        <vehicle id="truck_1" x="1365.97" y="431.54" angle="316.10" type="eTruck" speed="32.95" pos="608.93" lane="E1_0" slope="0.00"/>
        <vehicle id="truck_2" x="1599.70" y="195.63" angle="313.61" type="eTruck" speed="33.00" pos="276.77" lane="E1_0" slope="0.00"/>
    </timestep>
    <timestep time="19.00">
        <vehicle id="truck_1" x="1343.11" y="455.30" angle="316.10" type="eTruck" speed="32.97" pos="641.91" lane="E1_0" slope="0.00"/>
        <vehicle id="truck_2" x="1576.11" y="218.94" angle="314.80" type="eTruck" speed="33.17" pos="309.94" lane="E1_0" slope="0.00"/>
    </timestep>
    <timestep time="20.00">
        <vehicle id="truck_1" x="1320.15" y="479.15" angle="316.10" type="eTruck" speed="33.11" pos="675.02" lane="E1_0" slope="0.00"/>
        <vehicle id="truck_2" x="1552.52" y="242.35" angle="314.80" type="eTruck" speed="33.24" pos="343.18" lane="E1_0" slope="0.00"/>
    </timestep>
    <timestep time="21.00">
        <vehicle id="truck_1" x="1297.05" y="503.16" angle="316.10" type="eTruck" speed="33.32" pos="708.34" lane="E1_0" slope="0.00"/>
        <vehicle id="truck_2" x="1528.96" y="265.75" angle="314.80" type="eTruck" speed="33.21" pos="376.39" lane="E1_0" slope="0.00"/>
    </timestep>
    <timestep time="22.00">
        <vehicle id="truck_1" x="1274.16" y="526.95" angle="316.10" type="eTruck" speed="33.02" pos="741.36" lane="E1_0" slope="0.00"/>
        <vehicle id="truck_2" x="1505.36" y="289.18" angle="314.80" type="eTruck" speed="33.27" pos="409.65" lane="E1_0" slope="0.00"/>
    </timestep>
    <timestep time="23.00">
        <vehicle id="truck_1" x="1251.95" y="551.28" angle="317.84" type="eTruck" speed="32.95" pos="774.31" lane="E1_0" slope="0.00"/>
        <vehicle id="truck_2" x="1481.72" y="312.66" angle="314.80" type="eTruck" speed="33.32" pos="442.97" lane="E1_0" slope="0.00"/>
    </timestep>
    <timestep time="24.00">
        <vehicle id="truck_1" x="1229.76" y="575.77" angle="317.84" type="eTruck" speed="33.06" pos="807.36" lane="E1_0" slope="0.00"/>
        <vehicle id="truck_2" x="1458.17" y="336.04" angle="314.80" type="eTruck" speed="33.20" pos="476.17" lane="E1_0" slope="0.00"/>
    </timestep>
    <timestep time="25.00">
        <vehicle id="truck_1" x="1207.43" y="600.44" angle="317.84" type="eTruck" speed="33.28" pos="840.64" lane="E1_0" slope="0.00"/>
        <vehicle id="truck_2" x="1434.93" y="359.86" angle="316.10" type="eTruck" speed="33.28" pos="509.45" lane="E1_0" slope="0.00"/>
    </timestep>
    <timestep time="26.00">
        <vehicle id="truck_1" x="1185.17" y="625.02" angle="317.84" type="eTruck" speed="33.17" pos="873.81" lane="E1_0" slope="0.00"/>
        <vehicle id="truck_2" x="1412.09" y="383.60" angle="316.10" type="eTruck" speed="32.94" pos="542.39" lane="E1_0" slope="0.00"/>
    </timestep>
    <timestep time="27.00">
        <vehicle id="truck_1" x="1162.87" y="649.64" angle="317.84" type="eTruck" speed="33.22" pos="907.03" lane="E1_0" slope="0.00"/>
        <vehicle id="truck_2" x="1389.05" y="407.55" angle="316.10" type="eTruck" speed="33.24" pos="575.63" lane="E1_0" slope="0.00"/>
    </timestep>
    <timestep time="28.00">
        <vehicle id="truck_1" x="1140.55" y="674.30" angle="317.84" type="eTruck" speed="33.26" pos="940.30" lane="E1_0" slope="0.00"/>
        <vehicle id="truck_2" x="1366.10" y="431.40" angle="316.10" type="eTruck" speed="33.10" pos="608.74" lane="E1_0" slope="0.00"/>
    </timestep>
    <timestep time="29.00">
        <vehicle id="truck_1" x="1118.25" y="698.93" angle="317.84" type="eTruck" speed="33.23" pos="973.53" lane="E1_0" slope="0.00"/>
        <vehicle id="truck_2" x="1343.22" y="455.18" angle="316.10" type="eTruck" speed="33.01" pos="641.74" lane="E1_0" slope="0.00"/>
    </timestep>
    <timestep time="30.00">
        <vehicle id="truck_1" x="1095.90" y="723.60" angle="317.84" type="eTruck" speed="33.29" pos="1006.82" lane="E1_0" slope="0.00"/>
        <vehicle id="truck_2" x="1320.30" y="479.00" angle="316.10" type="eTruck" speed="33.06" pos="674.80" lane="E1_0" slope="0.00"/>
    </timestep>
    <timestep time="31.00">
        <vehicle id="truck_1" x="1074.02" y="748.36" angle="319.31" type="eTruck" speed="33.04" pos="1039.87" lane="E1_0" slope="0.00"/>
        <vehicle id="truck_2" x="1297.36" y="502.84" angle="316.10" type="eTruck" speed="33.09" pos="707.90" lane="E1_0" slope="0.00"/>
    </timestep>
    <timestep time="32.00">
        <vehicle id="truck_1" x="1052.48" y="773.42" angle="319.31" type="eTruck" speed="33.05" pos="1072.92" lane="E1_0" slope="0.00"/>
        <vehicle id="truck_2" x="1274.51" y="526.59" angle="316.10" type="eTruck" speed="32.96" pos="740.85" lane="E1_0" slope="0.00"/>
    </timestep>
    <timestep time="33.00">
        <vehicle id="truck_1" x="1031.00" y="798.40" angle="319.31" type="eTruck" speed="32.95" pos="1105.87" lane="E1_0" slope="0.00"/>
        <vehicle id="truck_2" x="1252.11" y="551.09" angle="317.84" type="eTruck" speed="33.21" pos="774.06" lane="E1_0" slope="0.00"/>
    </timestep>
    <timestep time="34.00">
        <vehicle id="truck_1" x="1009.41" y="823.52" angle="319.31" type="eTruck" speed="33.13" pos="1139.00" lane="E1_0" slope="0.00"/>
        <vehicle id="truck_2" x="1229.90" y="575.62" angle="317.84" type="eTruck" speed="33.10" pos="807.16" lane="E1_0" slope="0.00"/>
    </timestep>
    <timestep time="35.00">
        <vehicle id="truck_1" x="987.73" y="848.74" angle="319.31" type="eTruck" speed="33.26" pos="1172.26" lane="E1_0" slope="0.00"/>
        <vehicle id="truck_2" x="1207.79" y="600.04" angle="317.84" type="eTruck" speed="32.95" pos="840.10" lane="E1_0" slope="0.00"/>
    </timestep>
    <timestep time="36.00">
        <vehicle id="truck_1" x="966.05" y="873.95" angle="319.31" type="eTruck" speed="33.26" pos="1205.52" lane="E1_0" slope="0.00"/>
        <vehicle id="truck_2" x="1185.59" y="624.55" angle="317.84" type="eTruck" speed="33.07" pos="873.18" lane="E1_0" slope="0.00"/>
    </timestep>
    <timestep time="37.00">
        <vehicle id="truck_1" x="944.36" y="899.17" angle="319.31" type="eTruck" speed="33.27" pos="1238.79" lane="E1_0" slope="0.00"/>
        <vehicle id="truck_2" x="1163.23" y="649.25" angle="317.84" type="eTruck" speed="33.32" pos="906.50" lane="E1_0" slope="0.00"/>
    </timestep>
    <timestep time="38.00">
        <vehicle id="truck_1" x="922.71" y="924.36" angle="319.31" type="eTruck" speed="33.22" pos="1272.01" lane="E1_0" slope="0.00"/>
        <vehicle id="truck_2" x="1141.01" y="673.79" angle="317.84" type="eTruck" speed="33.11" pos="939.61" lane="E1_0" slope="0.00"/>
    </timestep>
    <timestep time="39.00">
        <vehicle id="truck_1" x="901.46" y="949.55" angle="320.73" type="eTruck" speed="32.96" pos="1304.97" lane="E1_0" slope="0.00"/>
        <vehicle id="truck_2" x="1118.66" y="698.47" angle="317.84" type="eTruck" speed="33.30" pos="972.91" lane="E1_0" slope="0.00"/>
    </timestep>
    <timestep time="40.00">
        <vehicle id="truck_1" x="880.42" y="975.29" angle="320.73" type="eTruck" speed="33.26" pos="1338.22" lane="E1_0" slope="0.00"/>
        <vehicle id="truck_2" x="1096.56" y="722.88" angle="317.84" type="eTruck" speed="32.93" pos="1005.84" lane="E1_0" slope="0.00"/>
    </timestep>
    <timestep time="41.00">
        <vehicle id="truck_1" x="859.40" y="1000.99" angle="320.73" type="eTruck" speed="33.20" pos="1371.43" lane="E1_0" slope="0.00"/>
        <vehicle id="truck_2" x="1074.56" y="747.73" angle="319.31" type="eTruck" speed="33.19" pos="1039.04" lane="E1_0" slope="0.00"/>
    </timestep>
    <timestep time="42.00">
        <vehicle id="truck_1" x="838.33" y="1026.77" angle="320.73" type="eTruck" speed="33.30" pos="1404.72" lane="E1_0" slope="0.00"/>
        <vehicle id="truck_2" x="1052.99" y="772.83" angle="319.31" type="eTruck" speed="33.10" pos="1072.14" lane="E1_0" slope="0.00"/>
    </timestep>
    <timestep time="43.00">
        <vehicle id="truck_1" x="817.29" y="1052.50" angle="320.73" type="eTruck" speed="33.25" pos="1437.97" lane="E1_0" slope="0.00"/>
        <vehicle id="truck_2" x="1031.31" y="798.04" angle="319.31" type="eTruck" speed="33.26" pos="1105.40" lane="E1_0" slope="0.00"/>
    </timestep>
    <timestep time="44.00">
        <vehicle id="truck_1" x="796.21" y="1078.29" angle="320.73" type="eTruck" speed="33.31" pos="1471.28" lane="E1_0" slope="0.00"/>
        <vehicle id="truck_2" x="1009.60" y="823.29" angle="319.31" type="eTruck" speed="33.30" pos="1138.70" lane="E1_0" slope="0.00"/>
    </timestep>
    <timestep time="45.00">
        <vehicle id="truck_1" x="775.30" y="1103.87" angle="320.73" type="eTruck" speed="33.04" pos="1504.32" lane="E1_0" slope="0.00"/>
        <vehicle id="truck_2" x="987.97" y="848.45" angle="319.31" type="eTruck" speed="33.19" pos="1171.89" lane="E1_0" slope="0.00"/>
    </timestep>
    <timestep time="46.00">
        <vehicle id="truck_1" x="754.28" y="1129.58" angle="320.73" type="eTruck" speed="33.21" pos="1537.54" lane="E1_0" slope="0.00"/>
        <vehicle id="truck_2" x="966.30" y="873.66" angle="319.31" type="eTruck" speed="33.25" pos="1205.13" lane="E1_0" slope="0.00"/>
    </timestep>
    <timestep time="47.00">
        <vehicle id="truck_1" x="733.36" y="1155.17" angle="320.73" type="eTruck" speed="33.06" pos="1570.60" lane="E1_0" slope="0.00"/>
        <vehicle id="truck_2" x="944.69" y="898.80" angle="319.31" type="eTruck" speed="33.16" pos="1238.29" lane="E1_0" slope="0.00"/>
    </timestep>
    <timestep time="48.00">
        <vehicle id="truck_1" x="712.53" y="1180.87" angle="321.26" type="eTruck" speed="33.08" pos="1603.68" lane="E1_0" slope="0.00"/>
        <vehicle id="truck_2" x="923.06" y="923.95" angle="319.31" type="eTruck" speed="33.17" pos="1271.47" lane="E1_0" slope="0.00"/>
    </timestep>
    <timestep time="49.00">
        <vehicle id="truck_1" x="691.81" y="1206.70" angle="321.26" type="eTruck" speed="33.12" pos="1636.80" lane="E1_0" slope="0.00"/>
        <vehicle id="truck_2" x="901.78" y="949.16" angle="320.72" type="eTruck" speed="33.00" pos="1304.47" lane="E1_0" slope="0.00"/>
    </timestep>
    <timestep time="50.00">
        <vehicle id="truck_1" x="671.10" y="1232.51" angle="321.26" type="eTruck" speed="33.10" pos="1669.90" lane="E1_0" slope="0.00"/>
        <vehicle id="truck_2" x="880.79" y="974.83" angle="320.73" type="eTruck" speed="33.16" pos="1337.63" lane="E1_0" slope="0.00"/>
    </timestep>
    <timestep time="51.00">
        <vehicle id="truck_1" x="650.33" y="1258.39" angle="321.26" type="eTruck" speed="33.18" pos="1703.08" lane="E1_0" slope="0.00"/>
        <vehicle id="truck_2" x="859.95" y="1000.33" angle="320.73" type="eTruck" speed="32.94" pos="1370.57" lane="E1_0" slope="0.00"/>
    </timestep>
    <timestep time="52.00">
        <vehicle id="truck_1" x="629.48" y="1284.37" angle="321.26" type="eTruck" speed="33.32" pos="1736.41" lane="E1_0" slope="0.00"/>
        <vehicle id="truck_2" x="838.93" y="1026.04" angle="320.73" type="eTruck" speed="33.21" pos="1403.78" lane="E1_0" slope="0.00"/>
    </timestep>
</fcd-export>
